+ 2 /NodeList/0/DeviceList/0/$ns3::PointToPointNetDevice/TxQueue/Enqueue ns3::PppHeader (Point-to-Point Protocol: IP (0x0021)) ns3::Ipv4Header (tos 0x0 DSCP Default ECN Not-ECT ttl 64 id 0 protocol 6 offset (bytes) 0 flags [none] length: 56 88.77.66.1 > 88.77.66.2) ns3::TcpHeader (49153 > 8000 [SYN] Seq=0 Ack=0 Win=65535 ns3::TcpOptionTS(2000;0) ns3::TcpOptionWinScale(2) ns3::TcpOptionSackPermitted([sack_perm]) ns3::TcpOptionEnd(EOL))
- 2 /NodeList/0/DeviceList/0/$ns3::PointToPointNetDevice/TxQueue/Dequeue ns3::PppHeader (Point-to-Point Protocol: IP (0x0021)) ns3::Ipv4Header (tos 0x0 DSCP Default ECN Not-ECT ttl 64 id 0 protocol 6 offset (bytes) 0 flags [none] length: 56 88.77.66.1 > 88.77.66.2) ns3::TcpHeader (49153 > 8000 [SYN] Seq=0 Ack=0 Win=65535 ns3::TcpOptionTS(2000;0) ns3::TcpOptionWinScale(2) ns3::TcpOptionSackPermitted([sack_perm]) ns3::TcpOptionEnd(EOL))
r 2.02701 /NodeList/1/DeviceList/0/$ns3::PointToPointNetDevice/MacRx ns3::PppHeader (Point-to-Point Protocol: IP (0x0021)) ns3::Ipv4Header (tos 0x0 DSCP Default ECN Not-ECT ttl 64 id 0 protocol 6 offset (bytes) 0 flags [none] length: 56 88.77.66.1 > 88.77.66.2) ns3::TcpHeader (49153 > 8000 [SYN] Seq=0 Ack=0 Win=65535 ns3::TcpOptionTS(2000;0) ns3::TcpOptionWinScale(2) ns3::TcpOptionSackPermitted([sack_perm]) ns3::TcpOptionEnd(EOL))
+ 2.02701 /NodeList/1/DeviceList/0/$ns3::PointToPointNetDevice/TxQueue/Enqueue ns3::PppHeader (Point-to-Point Protocol: IP (0x0021)) ns3::Ipv4Header (tos 0x0 DSCP Default ECN Not-ECT ttl 64 id 0 protocol 6 offset (bytes) 0 flags [none] length: 56 88.77.66.2 > 88.77.66.1) ns3::TcpHeader (8000 > 49153 [SYN|ACK] Seq=0 Ack=1 Win=65535 ns3::TcpOptionTS(2027;2000) ns3::TcpOptionWinScale(2) ns3::TcpOptionSackPermitted([sack_perm]) ns3::TcpOptionEnd(EOL))
- 2.02701 /NodeList/1/DeviceList/0/$ns3::PointToPointNetDevice/TxQueue/Dequeue ns3::PppHeader (Point-to-Point Protocol: IP (0x0021)) ns3::Ipv4Header (tos 0x0 DSCP Default ECN Not-ECT ttl 64 id 0 protocol 6 offset (bytes) 0 flags [none] length: 56 88.77.66.2 > 88.77.66.1) ns3::TcpHeader (8000 > 49153 [SYN|ACK] Seq=0 Ack=1 Win=65535 ns3::TcpOptionTS(2027;2000) ns3::TcpOptionWinScale(2) ns3::TcpOptionSackPermitted([sack_perm]) ns3::TcpOptionEnd(EOL))
r 2.05403 /NodeList/0/DeviceList/0/$ns3::PointToPointNetDevice/MacRx ns3::PppHeader (Point-to-Point Protocol: IP (0x0021)) ns3::Ipv4Header (tos 0x0 DSCP Default ECN Not-ECT ttl 64 id 0 protocol 6 offset (bytes) 0 flags [none] length: 56 88.77.66.2 > 88.77.66.1) ns3::TcpHeader (8000 > 49153 [SYN|ACK] Seq=0 Ack=1 Win=65535 ns3::TcpOptionTS(2027;2000) ns3::TcpOptionWinScale(2) ns3::TcpOptionSackPermitted([sack_perm]) ns3::TcpOptionEnd(EOL))
+ 2.05403 /NodeList/0/DeviceList/0/$ns3::PointToPointNetDevice/TxQueue/Enqueue ns3::PppHeader (Point-to-Point Protocol: IP (0x0021)) ns3::Ipv4Header (tos 0x0 DSCP Default ECN Not-ECT ttl 64 id 1 protocol 6 offset (bytes) 0 flags [none] length: 52 88.77.66.1 > 88.77.66.2) ns3::TcpHeader (49153 > 8000 [ACK] Seq=1 Ack=1 Win=32768 ns3::TcpOptionTS(2054;2027) ns3::TcpOptionEnd(EOL))
- 2.05403 /NodeList/0/DeviceList/0/$ns3::PointToPointNetDevice/TxQueue/Dequeue ns3::PppHeader (Point-to-Point Protocol: IP (0x0021)) ns3::Ipv4Header (tos 0x0 DSCP Default ECN Not-ECT ttl 64 id 1 protocol 6 offset (bytes) 0 flags [none] length: 52 88.77.66.1 > 88.77.66.2) ns3::TcpHeader (49153 > 8000 [ACK] Seq=1 Ack=1 Win=32768 ns3::TcpOptionTS(2054;2027) ns3::TcpOptionEnd(EOL))
r 2.08104 /NodeList/1/DeviceList/0/$ns3::PointToPointNetDevice/MacRx ns3::PppHeader (Point-to-Point Protocol: IP (0x0021)) ns3::Ipv4Header (tos 0x0 DSCP Default ECN Not-ECT ttl 64 id 1 protocol 6 offset (bytes) 0 flags [none] length: 52 88.77.66.1 > 88.77.66.2) ns3::TcpHeader (49153 > 8000 [ACK] Seq=1 Ack=1 Win=32768 ns3::TcpOptionTS(2054;2027) ns3::TcpOptionEnd(EOL))
+ 3.07117 /NodeList/0/DeviceList/0/$ns3::PointToPointNetDevice/TxQueue/Enqueue ns3::PppHeader (Point-to-Point Protocol: IP (0x0021)) ns3::Ipv4Header (tos 0x0 DSCP Default ECN Not-ECT ttl 64 id 2 protocol 6 offset (bytes) 0 flags [none] length: 588 88.77.66.1 > 88.77.66.2) ns3::TcpHeader (49153 > 8000 [ACK] Seq=1 Ack=1 Win=32768 ns3::TcpOptionTS(3071;2027) ns3::TcpOptionEnd(EOL)) Payload Fragment [0:536]
- 3.07117 /NodeList/0/DeviceList/0/$ns3::PointToPointNetDevice/TxQueue/Dequeue ns3::PppHeader (Point-to-Point Protocol: IP (0x0021)) ns3::Ipv4Header (tos 0x0 DSCP Default ECN Not-ECT ttl 64 id 2 protocol 6 offset (bytes) 0 flags [none] length: 588 88.77.66.1 > 88.77.66.2) ns3::TcpHeader (49153 > 8000 [ACK] Seq=1 Ack=1 Win=32768 ns3::TcpOptionTS(3071;2027) ns3::TcpOptionEnd(EOL)) Payload Fragment [0:536]
+ 3.07117 /NodeList/0/DeviceList/0/$ns3::PointToPointNetDevice/TxQueue/Enqueue ns3::PppHeader (Point-to-Point Protocol: IP (0x0021)) ns3::Ipv4Header (tos 0x0 DSCP Default ECN Not-ECT ttl 64 id 3 protocol 6 offset (bytes) 0 flags [none] length: 588 88.77.66.1 > 88.77.66.2) ns3::TcpHeader (49153 > 8000 [ACK] Seq=537 Ack=1 Win=32768 ns3::TcpOptionTS(3071;2027) ns3::TcpOptionEnd(EOL)) Payload Fragment [536:1072]
+ 3.07117 /NodeList/0/DeviceList/0/$ns3::PointToPointNetDevice/TxQueue/Enqueue ns3::PppHeader (Point-to-Point Protocol: IP (0x0021)) ns3::Ipv4Header (tos 0x0 DSCP Default ECN Not-ECT ttl 64 id 4 protocol 6 offset (bytes) 0 flags [none] length: 480 88.77.66.1 > 88.77.66.2) ns3::TcpHeader (49153 > 8000 [ACK] Seq=1073 Ack=1 Win=32768 ns3::TcpOptionTS(3071;2027) ns3::TcpOptionEnd(EOL)) Payload Fragment [1072:1500]
- 3.0713 /NodeList/0/DeviceList/0/$ns3::PointToPointNetDevice/TxQueue/Dequeue ns3::PppHeader (Point-to-Point Protocol: IP (0x0021)) ns3::Ipv4Header (tos 0x0 DSCP Default ECN Not-ECT ttl 64 id 3 protocol 6 offset (bytes) 0 flags [none] length: 588 88.77.66.1 > 88.77.66.2) ns3::TcpHeader (49153 > 8000 [ACK] Seq=537 Ack=1 Win=32768 ns3::TcpOptionTS(3071;2027) ns3::TcpOptionEnd(EOL)) Payload Fragment [536:1072]
- 3.07144 /NodeList/0/DeviceList/0/$ns3::PointToPointNetDevice/TxQueue/Dequeue ns3::PppHeader (Point-to-Point Protocol: IP (0x0021)) ns3::Ipv4Header (tos 0x0 DSCP Default ECN Not-ECT ttl 64 id 4 protocol 6 offset (bytes) 0 flags [none] length: 480 88.77.66.1 > 88.77.66.2) ns3::TcpHeader (49153 > 8000 [ACK] Seq=1073 Ack=1 Win=32768 ns3::TcpOptionTS(3071;2027) ns3::TcpOptionEnd(EOL)) Payload Fragment [1072:1500]
+ 3.08831 /NodeList/0/DeviceList/0/$ns3::PointToPointNetDevice/TxQueue/Enqueue ns3::PppHeader (Point-to-Point Protocol: IP (0x0021)) ns3::Ipv4Header (tos 0x0 DSCP Default ECN Not-ECT ttl 64 id 5 protocol 6 offset (bytes) 0 flags [none] length: 588 88.77.66.1 > 88.77.66.2) ns3::TcpHeader (49153 > 8000 [ACK] Seq=1501 Ack=1 Win=32768 ns3::TcpOptionTS(3088;2027) ns3::TcpOptionEnd(EOL)) Payload Fragment [0:536]
- 3.08831 /NodeList/0/DeviceList/0/$ns3::PointToPointNetDevice/TxQueue/Dequeue ns3::PppHeader (Point-to-Point Protocol: IP (0x0021)) ns3::Ipv4Header (tos 0x0 DSCP Default ECN Not-ECT ttl 64 id 5 protocol 6 offset (bytes) 0 flags [none] length: 588 88.77.66.1 > 88.77.66.2) ns3::TcpHeader (49153 > 8000 [ACK] Seq=1501 Ack=1 Win=32768 ns3::TcpOptionTS(3088;2027) ns3::TcpOptionEnd(EOL)) Payload Fragment [0:536]
+ 3.08831 /NodeList/0/DeviceList/0/$ns3::PointToPointNetDevice/TxQueue/Enqueue ns3::PppHeader (Point-to-Point Protocol: IP (0x0021)) ns3::Ipv4Header (tos 0x0 DSCP Default ECN Not-ECT ttl 64 id 6 protocol 6 offset (bytes) 0 flags [none] length: 588 88.77.66.1 > 88.77.66.2) ns3::TcpHeader (49153 > 8000 [ACK] Seq=2037 Ack=1 Win=32768 ns3::TcpOptionTS(3088;2027) ns3::TcpOptionEnd(EOL)) Payload Fragment [536:1072]
+ 3.08831 /NodeList/0/DeviceList/0/$ns3::PointToPointNetDevice/TxQueue/Enqueue ns3::PppHeader (Point-to-Point Protocol: IP (0x0021)) ns3::Ipv4Header (tos 0x0 DSCP Default ECN Not-ECT ttl 64 id 7 protocol 6 offset (bytes) 0 flags [none] length: 480 88.77.66.1 > 88.77.66.2) ns3::TcpHeader (49153 > 8000 [ACK] Seq=2573 Ack=1 Win=32768 ns3::TcpOptionTS(3088;2027) ns3::TcpOptionEnd(EOL)) Payload Fragment [1072:1500]
- 3.08845 /NodeList/0/DeviceList/0/$ns3::PointToPointNetDevice/TxQueue/Dequeue ns3::PppHeader (Point-to-Point Protocol: IP (0x0021)) ns3::Ipv4Header (tos 0x0 DSCP Default ECN Not-ECT ttl 64 id 6 protocol 6 offset (bytes) 0 flags [none] length: 588 88.77.66.1 > 88.77.66.2) ns3::TcpHeader (49153 > 8000 [ACK] Seq=2037 Ack=1 Win=32768 ns3::TcpOptionTS(3088;2027) ns3::TcpOptionEnd(EOL)) Payload Fragment [536:1072]
- 3.08858 /NodeList/0/DeviceList/0/$ns3::PointToPointNetDevice/TxQueue/Dequeue ns3::PppHeader (Point-to-Point Protocol: IP (0x0021)) ns3::Ipv4Header (tos 0x0 DSCP Default ECN Not-ECT ttl 64 id 7 protocol 6 offset (bytes) 0 flags [none] length: 480 88.77.66.1 > 88.77.66.2) ns3::TcpHeader (49153 > 8000 [ACK] Seq=2573 Ack=1 Win=32768 ns3::TcpOptionTS(3088;2027) ns3::TcpOptionEnd(EOL)) Payload Fragment [1072:1500]
r 3.0983 /NodeList/1/DeviceList/0/$ns3::PointToPointNetDevice/MacRx ns3::PppHeader (Point-to-Point Protocol: IP (0x0021)) ns3::Ipv4Header (tos 0x0 DSCP Default ECN Not-ECT ttl 64 id 2 protocol 6 offset (bytes) 0 flags [none] length: 588 88.77.66.1 > 88.77.66.2) ns3::TcpHeader (49153 > 8000 [ACK] Seq=1 Ack=1 Win=32768 ns3::TcpOptionTS(3071;2027) ns3::TcpOptionEnd(EOL)) Payload Fragment [0:536]
+ 3.0983 /NodeList/1/DeviceList/0/$ns3::PointToPointNetDevice/TxQueue/Enqueue ns3::PppHeader (Point-to-Point Protocol: IP (0x0021)) ns3::Ipv4Header (tos 0x0 DSCP Default ECN Not-ECT ttl 64 id 1 protocol 6 offset (bytes) 0 flags [none] length: 52 88.77.66.2 > 88.77.66.1) ns3::TcpHeader (8000 > 49153 [ACK] Seq=1 Ack=537 Win=32768 ns3::TcpOptionTS(3098;3071) ns3::TcpOptionEnd(EOL))
- 3.0983 /NodeList/1/DeviceList/0/$ns3::PointToPointNetDevice/TxQueue/Dequeue ns3::PppHeader (Point-to-Point Protocol: IP (0x0021)) ns3::Ipv4Header (tos 0x0 DSCP Default ECN Not-ECT ttl 64 id 1 protocol 6 offset (bytes) 0 flags [none] length: 52 88.77.66.2 > 88.77.66.1) ns3::TcpHeader (8000 > 49153 [ACK] Seq=1 Ack=537 Win=32768 ns3::TcpOptionTS(3098;3071) ns3::TcpOptionEnd(EOL))
r 3.09844 /NodeList/1/DeviceList/0/$ns3::PointToPointNetDevice/MacRx ns3::PppHeader (Point-to-Point Protocol: IP (0x0021)) ns3::Ipv4Header (tos 0x0 DSCP Default ECN Not-ECT ttl 64 id 3 protocol 6 offset (bytes) 0 flags [none] length: 588 88.77.66.1 > 88.77.66.2) ns3::TcpHeader (49153 > 8000 [ACK] Seq=537 Ack=1 Win=32768 ns3::TcpOptionTS(3071;2027) ns3::TcpOptionEnd(EOL)) Payload Fragment [536:1072]
r 3.09855 /NodeList/1/DeviceList/0/$ns3::PointToPointNetDevice/MacRx ns3::PppHeader (Point-to-Point Protocol: IP (0x0021)) ns3::Ipv4Header (tos 0x0 DSCP Default ECN Not-ECT ttl 64 id 4 protocol 6 offset (bytes) 0 flags [none] length: 480 88.77.66.1 > 88.77.66.2) ns3::TcpHeader (49153 > 8000 [ACK] Seq=1073 Ack=1 Win=32768 ns3::TcpOptionTS(3071;2027) ns3::TcpOptionEnd(EOL)) Payload Fragment [1072:1500]
+ 3.09855 /NodeList/1/DeviceList/0/$ns3::PointToPointNetDevice/TxQueue/Enqueue ns3::PppHeader (Point-to-Point Protocol: IP (0x0021)) ns3::Ipv4Header (tos 0x0 DSCP Default ECN Not-ECT ttl 64 id 2 protocol 6 offset (bytes) 0 flags [none] length: 52 88.77.66.2 > 88.77.66.1) ns3::TcpHeader (8000 > 49153 [ACK] Seq=1 Ack=1501 Win=32768 ns3::TcpOptionTS(3098;3071) ns3::TcpOptionEnd(EOL))
- 3.09855 /NodeList/1/DeviceList/0/$ns3::PointToPointNetDevice/TxQueue/Dequeue ns3::PppHeader (Point-to-Point Protocol: IP (0x0021)) ns3::Ipv4Header (tos 0x0 DSCP Default ECN Not-ECT ttl 64 id 2 protocol 6 offset (bytes) 0 flags [none] length: 52 88.77.66.2 > 88.77.66.1) ns3::TcpHeader (8000 > 49153 [ACK] Seq=1 Ack=1501 Win=32768 ns3::TcpOptionTS(3098;3071) ns3::TcpOptionEnd(EOL))
+ 3.10546 /NodeList/0/DeviceList/0/$ns3::PointToPointNetDevice/TxQueue/Enqueue ns3::PppHeader (Point-to-Point Protocol: IP (0x0021)) ns3::Ipv4Header (tos 0x0 DSCP Default ECN Not-ECT ttl 64 id 8 protocol 6 offset (bytes) 0 flags [none] length: 588 88.77.66.1 > 88.77.66.2) ns3::TcpHeader (49153 > 8000 [ACK] Seq=3001 Ack=1 Win=32768 ns3::TcpOptionTS(3105;2027) ns3::TcpOptionEnd(EOL)) Payload Fragment [0:536]
- 3.10546 /NodeList/0/DeviceList/0/$ns3::PointToPointNetDevice/TxQueue/Dequeue ns3::PppHeader (Point-to-Point Protocol: IP (0x0021)) ns3::Ipv4Header (tos 0x0 DSCP Default ECN Not-ECT ttl 64 id 8 protocol 6 offset (bytes) 0 flags [none] length: 588 88.77.66.1 > 88.77.66.2) ns3::TcpHeader (49153 > 8000 [ACK] Seq=3001 Ack=1 Win=32768 ns3::TcpOptionTS(3105;2027) ns3::TcpOptionEnd(EOL)) Payload Fragment [0:536]
+ 3.10546 /NodeList/0/DeviceList/0/$ns3::PointToPointNetDevice/TxQueue/Enqueue ns3::PppHeader (Point-to-Point Protocol: IP (0x0021)) ns3::Ipv4Header (tos 0x0 DSCP Default ECN Not-ECT ttl 64 id 9 protocol 6 offset (bytes) 0 flags [none] length: 588 88.77.66.1 > 88.77.66.2) ns3::TcpHeader (49153 > 8000 [ACK] Seq=3537 Ack=1 Win=32768 ns3::TcpOptionTS(3105;2027) ns3::TcpOptionEnd(EOL)) Payload Fragment [536:1072]
+ 3.10546 /NodeList/0/DeviceList/0/$ns3::PointToPointNetDevice/TxQueue/Enqueue ns3::PppHeader (Point-to-Point Protocol: IP (0x0021)) ns3::Ipv4Header (tos 0x0 DSCP Default ECN Not-ECT ttl 64 id 10 protocol 6 offset (bytes) 0 flags [none] length: 480 88.77.66.1 > 88.77.66.2) ns3::TcpHeader (49153 > 8000 [ACK] Seq=4073 Ack=1 Win=32768 ns3::TcpOptionTS(3105;2027) ns3::TcpOptionEnd(EOL)) Payload Fragment [1072:1500]
- 3.10559 /NodeList/0/DeviceList/0/$ns3::PointToPointNetDevice/TxQueue/Dequeue ns3::PppHeader (Point-to-Point Protocol: IP (0x0021)) ns3::Ipv4Header (tos 0x0 DSCP Default ECN Not-ECT ttl 64 id 9 protocol 6 offset (bytes) 0 flags [none] length: 588 88.77.66.1 > 88.77.66.2) ns3::TcpHeader (49153 > 8000 [ACK] Seq=3537 Ack=1 Win=32768 ns3::TcpOptionTS(3105;2027) ns3::TcpOptionEnd(EOL)) Payload Fragment [536:1072]
- 3.10572 /NodeList/0/DeviceList/0/$ns3::PointToPointNetDevice/TxQueue/Dequeue ns3::PppHeader (Point-to-Point Protocol: IP (0x0021)) ns3::Ipv4Header (tos 0x0 DSCP Default ECN Not-ECT ttl 64 id 10 protocol 6 offset (bytes) 0 flags [none] length: 480 88.77.66.1 > 88.77.66.2) ns3::TcpHeader (49153 > 8000 [ACK] Seq=4073 Ack=1 Win=32768 ns3::TcpOptionTS(3105;2027) ns3::TcpOptionEnd(EOL)) Payload Fragment [1072:1500]
r 3.11545 /NodeList/1/DeviceList/0/$ns3::PointToPointNetDevice/MacRx ns3::PppHeader (Point-to-Point Protocol: IP (0x0021)) ns3::Ipv4Header (tos 0x0 DSCP Default ECN Not-ECT ttl 64 id 5 protocol 6 offset (bytes) 0 flags [none] length: 588 88.77.66.1 > 88.77.66.2) ns3::TcpHeader (49153 > 8000 [ACK] Seq=1501 Ack=1 Win=32768 ns3::TcpOptionTS(3088;2027) ns3::TcpOptionEnd(EOL)) Payload Fragment [0:536]
r 3.11558 /NodeList/1/DeviceList/0/$ns3::PointToPointNetDevice/MacRx ns3::PppHeader (Point-to-Point Protocol: IP (0x0021)) ns3::Ipv4Header (tos 0x0 DSCP Default ECN Not-ECT ttl 64 id 6 protocol 6 offset (bytes) 0 flags [none] length: 588 88.77.66.1 > 88.77.66.2) ns3::TcpHeader (49153 > 8000 [ACK] Seq=2037 Ack=1 Win=32768 ns3::TcpOptionTS(3088;2027) ns3::TcpOptionEnd(EOL)) Payload Fragment [536:1072]
+ 3.11558 /NodeList/1/DeviceList/0/$ns3::PointToPointNetDevice/TxQueue/Enqueue ns3::PppHeader (Point-to-Point Protocol: IP (0x0021)) ns3::Ipv4Header (tos 0x0 DSCP Default ECN Not-ECT ttl 64 id 3 protocol 6 offset (bytes) 0 flags [none] length: 52 88.77.66.2 > 88.77.66.1) ns3::TcpHeader (8000 > 49153 [ACK] Seq=1 Ack=2573 Win=32768 ns3::TcpOptionTS(3115;3088) ns3::TcpOptionEnd(EOL))
- 3.11558 /NodeList/1/DeviceList/0/$ns3::PointToPointNetDevice/TxQueue/Dequeue ns3::PppHeader (Point-to-Point Protocol: IP (0x0021)) ns3::Ipv4Header (tos 0x0 DSCP Default ECN Not-ECT ttl 64 id 3 protocol 6 offset (bytes) 0 flags [none] length: 52 88.77.66.2 > 88.77.66.1) ns3::TcpHeader (8000 > 49153 [ACK] Seq=1 Ack=2573 Win=32768 ns3::TcpOptionTS(3115;3088) ns3::TcpOptionEnd(EOL))
r 3.11569 /NodeList/1/DeviceList/0/$ns3::PointToPointNetDevice/MacRx ns3::PppHeader (Point-to-Point Protocol: IP (0x0021)) ns3::Ipv4Header (tos 0x0 DSCP Default ECN Not-ECT ttl 64 id 7 protocol 6 offset (bytes) 0 flags [none] length: 480 88.77.66.1 > 88.77.66.2) ns3::TcpHeader (49153 > 8000 [ACK] Seq=2573 Ack=1 Win=32768 ns3::TcpOptionTS(3088;2027) ns3::TcpOptionEnd(EOL)) Payload Fragment [1072:1500]
+ 3.1226 /NodeList/0/DeviceList/0/$ns3::PointToPointNetDevice/TxQueue/Enqueue ns3::PppHeader (Point-to-Point Protocol: IP (0x0021)) ns3::Ipv4Header (tos 0x0 DSCP Default ECN Not-ECT ttl 64 id 11 protocol 6 offset (bytes) 0 flags [none] length: 588 88.77.66.1 > 88.77.66.2) ns3::TcpHeader (49153 > 8000 [ACK] Seq=4501 Ack=1 Win=32768 ns3::TcpOptionTS(3122;2027) ns3::TcpOptionEnd(EOL)) Payload Fragment [0:536]
- 3.1226 /NodeList/0/DeviceList/0/$ns3::PointToPointNetDevice/TxQueue/Dequeue ns3::PppHeader (Point-to-Point Protocol: IP (0x0021)) ns3::Ipv4Header (tos 0x0 DSCP Default ECN Not-ECT ttl 64 id 11 protocol 6 offset (bytes) 0 flags [none] length: 588 88.77.66.1 > 88.77.66.2) ns3::TcpHeader (49153 > 8000 [ACK] Seq=4501 Ack=1 Win=32768 ns3::TcpOptionTS(3122;2027) ns3::TcpOptionEnd(EOL)) Payload Fragment [0:536]
r 3.12532 /NodeList/0/DeviceList/0/$ns3::PointToPointNetDevice/MacRx ns3::PppHeader (Point-to-Point Protocol: IP (0x0021)) ns3::Ipv4Header (tos 0x0 DSCP Default ECN Not-ECT ttl 64 id 1 protocol 6 offset (bytes) 0 flags [none] length: 52 88.77.66.2 > 88.77.66.1) ns3::TcpHeader (8000 > 49153 [ACK] Seq=1 Ack=537 Win=32768 ns3::TcpOptionTS(3098;3071) ns3::TcpOptionEnd(EOL))
+ 3.12532 /NodeList/0/DeviceList/0/$ns3::PointToPointNetDevice/TxQueue/Enqueue ns3::PppHeader (Point-to-Point Protocol: IP (0x0021)) ns3::Ipv4Header (tos 0x0 DSCP Default ECN Not-ECT ttl 64 id 12 protocol 6 offset (bytes) 0 flags [none] length: 588 88.77.66.1 > 88.77.66.2) ns3::TcpHeader (49153 > 8000 [ACK] Seq=5037 Ack=1 Win=32768 ns3::TcpOptionTS(3125;3098) ns3::TcpOptionEnd(EOL)) Payload Fragment [536:1072]
- 3.12532 /NodeList/0/DeviceList/0/$ns3::PointToPointNetDevice/TxQueue/Dequeue ns3::PppHeader (Point-to-Point Protocol: IP (0x0021)) ns3::Ipv4Header (tos 0x0 DSCP Default ECN Not-ECT ttl 64 id 12 protocol 6 offset (bytes) 0 flags [none] length: 588 88.77.66.1 > 88.77.66.2) ns3::TcpHeader (49153 > 8000 [ACK] Seq=5037 Ack=1 Win=32768 ns3::TcpOptionTS(3125;3098) ns3::TcpOptionEnd(EOL)) Payload Fragment [536:1072]
+ 3.12532 /NodeList/0/DeviceList/0/$ns3::PointToPointNetDevice/TxQueue/Enqueue ns3::PppHeader (Point-to-Point Protocol: IP (0x0021)) ns3::Ipv4Header (tos 0x0 DSCP Default ECN Not-ECT ttl 64 id 13 protocol 6 offset (bytes) 0 flags [none] length: 480 88.77.66.1 > 88.77.66.2) ns3::TcpHeader (49153 > 8000 [ACK] Seq=5573 Ack=1 Win=32768 ns3::TcpOptionTS(3125;3098) ns3::TcpOptionEnd(EOL)) Payload Fragment [1072:1500]
- 3.12545 /NodeList/0/DeviceList/0/$ns3::PointToPointNetDevice/TxQueue/Dequeue ns3::PppHeader (Point-to-Point Protocol: IP (0x0021)) ns3::Ipv4Header (tos 0x0 DSCP Default ECN Not-ECT ttl 64 id 13 protocol 6 offset (bytes) 0 flags [none] length: 480 88.77.66.1 > 88.77.66.2) ns3::TcpHeader (49153 > 8000 [ACK] Seq=5573 Ack=1 Win=32768 ns3::TcpOptionTS(3125;3098) ns3::TcpOptionEnd(EOL)) Payload Fragment [1072:1500]
r 3.12556 /NodeList/0/DeviceList/0/$ns3::PointToPointNetDevice/MacRx ns3::PppHeader (Point-to-Point Protocol: IP (0x0021)) ns3::Ipv4Header (tos 0x0 DSCP Default ECN Not-ECT ttl 64 id 2 protocol 6 offset (bytes) 0 flags [none] length: 52 88.77.66.2 > 88.77.66.1) ns3::TcpHeader (8000 > 49153 [ACK] Seq=1 Ack=1501 Win=32768 ns3::TcpOptionTS(3098;3071) ns3::TcpOptionEnd(EOL))
r 3.13259 /NodeList/1/DeviceList/0/$ns3::PointToPointNetDevice/MacRx ns3::PppHeader (Point-to-Point Protocol: IP (0x0021)) ns3::Ipv4Header (tos 0x0 DSCP Default ECN Not-ECT ttl 64 id 8 protocol 6 offset (bytes) 0 flags [none] length: 588 88.77.66.1 > 88.77.66.2) ns3::TcpHeader (49153 > 8000 [ACK] Seq=3001 Ack=1 Win=32768 ns3::TcpOptionTS(3105;2027) ns3::TcpOptionEnd(EOL)) Payload Fragment [0:536]
+ 3.13259 /NodeList/1/DeviceList/0/$ns3::PointToPointNetDevice/TxQueue/Enqueue ns3::PppHeader (Point-to-Point Protocol: IP (0x0021)) ns3::Ipv4Header (tos 0x0 DSCP Default ECN Not-ECT ttl 64 id 4 protocol 6 offset (bytes) 0 flags [none] length: 52 88.77.66.2 > 88.77.66.1) ns3::TcpHeader (8000 > 49153 [ACK] Seq=1 Ack=3537 Win=32768 ns3::TcpOptionTS(3132;3088) ns3::TcpOptionEnd(EOL))
- 3.13259 /NodeList/1/DeviceList/0/$ns3::PointToPointNetDevice/TxQueue/Dequeue ns3::PppHeader (Point-to-Point Protocol: IP (0x0021)) ns3::Ipv4Header (tos 0x0 DSCP Default ECN Not-ECT ttl 64 id 4 protocol 6 offset (bytes) 0 flags [none] length: 52 88.77.66.2 > 88.77.66.1) ns3::TcpHeader (8000 > 49153 [ACK] Seq=1 Ack=3537 Win=32768 ns3::TcpOptionTS(3132;3088) ns3::TcpOptionEnd(EOL))
r 3.13272 /NodeList/1/DeviceList/0/$ns3::PointToPointNetDevice/MacRx ns3::PppHeader (Point-to-Point Protocol: IP (0x0021)) ns3::Ipv4Header (tos 0x0 DSCP Default ECN Not-ECT ttl 64 id 9 protocol 6 offset (bytes) 0 flags [none] length: 588 88.77.66.1 > 88.77.66.2) ns3::TcpHeader (49153 > 8000 [ACK] Seq=3537 Ack=1 Win=32768 ns3::TcpOptionTS(3105;2027) ns3::TcpOptionEnd(EOL)) Payload Fragment [536:1072]
r 3.13283 /NodeList/1/DeviceList/0/$ns3::PointToPointNetDevice/MacRx ns3::PppHeader (Point-to-Point Protocol: IP (0x0021)) ns3::Ipv4Header (tos 0x0 DSCP Default ECN Not-ECT ttl 64 id 10 protocol 6 offset (bytes) 0 flags [none] length: 480 88.77.66.1 > 88.77.66.2) ns3::TcpHeader (49153 > 8000 [ACK] Seq=4073 Ack=1 Win=32768 ns3::TcpOptionTS(3105;2027) ns3::TcpOptionEnd(EOL)) Payload Fragment [1072:1500]
+ 3.13283 /NodeList/1/DeviceList/0/$ns3::PointToPointNetDevice/TxQueue/Enqueue ns3::PppHeader (Point-to-Point Protocol: IP (0x0021)) ns3::Ipv4Header (tos 0x0 DSCP Default ECN Not-ECT ttl 64 id 5 protocol 6 offset (bytes) 0 flags [none] length: 52 88.77.66.2 > 88.77.66.1) ns3::TcpHeader (8000 > 49153 [ACK] Seq=1 Ack=4501 Win=32768 ns3::TcpOptionTS(3132;3105) ns3::TcpOptionEnd(EOL))
- 3.13283 /NodeList/1/DeviceList/0/$ns3::PointToPointNetDevice/TxQueue/Dequeue ns3::PppHeader (Point-to-Point Protocol: IP (0x0021)) ns3::Ipv4Header (tos 0x0 DSCP Default ECN Not-ECT ttl 64 id 5 protocol 6 offset (bytes) 0 flags [none] length: 52 88.77.66.2 > 88.77.66.1) ns3::TcpHeader (8000 > 49153 [ACK] Seq=1 Ack=4501 Win=32768 ns3::TcpOptionTS(3132;3105) ns3::TcpOptionEnd(EOL))
+ 3.13974 /NodeList/0/DeviceList/0/$ns3::PointToPointNetDevice/TxQueue/Enqueue ns3::PppHeader (Point-to-Point Protocol: IP (0x0021)) ns3::Ipv4Header (tos 0x0 DSCP Default ECN Not-ECT ttl 64 id 14 protocol 6 offset (bytes) 0 flags [none] length: 588 88.77.66.1 > 88.77.66.2) ns3::TcpHeader (49153 > 8000 [ACK] Seq=6001 Ack=1 Win=32768 ns3::TcpOptionTS(3139;3098) ns3::TcpOptionEnd(EOL)) Payload Fragment [0:536]
- 3.13974 /NodeList/0/DeviceList/0/$ns3::PointToPointNetDevice/TxQueue/Dequeue ns3::PppHeader (Point-to-Point Protocol: IP (0x0021)) ns3::Ipv4Header (tos 0x0 DSCP Default ECN Not-ECT ttl 64 id 14 protocol 6 offset (bytes) 0 flags [none] length: 588 88.77.66.1 > 88.77.66.2) ns3::TcpHeader (49153 > 8000 [ACK] Seq=6001 Ack=1 Win=32768 ns3::TcpOptionTS(3139;3098) ns3::TcpOptionEnd(EOL)) Payload Fragment [0:536]
+ 3.13974 /NodeList/0/DeviceList/0/$ns3::PointToPointNetDevice/TxQueue/Enqueue ns3::PppHeader (Point-to-Point Protocol: IP (0x0021)) ns3::Ipv4Header (tos 0x0 DSCP Default ECN Not-ECT ttl 64 id 15 protocol 6 offset (bytes) 0 flags [none] length: 588 88.77.66.1 > 88.77.66.2) ns3::TcpHeader (49153 > 8000 [ACK] Seq=6537 Ack=1 Win=32768 ns3::TcpOptionTS(3139;3098) ns3::TcpOptionEnd(EOL)) Payload Fragment [536:1072]
+ 3.13974 /NodeList/0/DeviceList/0/$ns3::PointToPointNetDevice/TxQueue/Enqueue ns3::PppHeader (Point-to-Point Protocol: IP (0x0021)) ns3::Ipv4Header (tos 0x0 DSCP Default ECN Not-ECT ttl 64 id 16 protocol 6 offset (bytes) 0 flags [none] length: 480 88.77.66.1 > 88.77.66.2) ns3::TcpHeader (49153 > 8000 [ACK] Seq=7073 Ack=1 Win=32768 ns3::TcpOptionTS(3139;3098) ns3::TcpOptionEnd(EOL)) Payload Fragment [1072:1500]
- 3.13988 /NodeList/0/DeviceList/0/$ns3::PointToPointNetDevice/TxQueue/Dequeue ns3::PppHeader (Point-to-Point Protocol: IP (0x0021)) ns3::Ipv4Header (tos 0x0 DSCP Default ECN Not-ECT ttl 64 id 15 protocol 6 offset (bytes) 0 flags [none] length: 588 88.77.66.1 > 88.77.66.2) ns3::TcpHeader (49153 > 8000 [ACK] Seq=6537 Ack=1 Win=32768 ns3::TcpOptionTS(3139;3098) ns3::TcpOptionEnd(EOL)) Payload Fragment [536:1072]
- 3.14001 /NodeList/0/DeviceList/0/$ns3::PointToPointNetDevice/TxQueue/Dequeue ns3::PppHeader (Point-to-Point Protocol: IP (0x0021)) ns3::Ipv4Header (tos 0x0 DSCP Default ECN Not-ECT ttl 64 id 16 protocol 6 offset (bytes) 0 flags [none] length: 480 88.77.66.1 > 88.77.66.2) ns3::TcpHeader (49153 > 8000 [ACK] Seq=7073 Ack=1 Win=32768 ns3::TcpOptionTS(3139;3098) ns3::TcpOptionEnd(EOL)) Payload Fragment [1072:1500]
r 3.14259 /NodeList/0/DeviceList/0/$ns3::PointToPointNetDevice/MacRx ns3::PppHeader (Point-to-Point Protocol: IP (0x0021)) ns3::Ipv4Header (tos 0x0 DSCP Default ECN Not-ECT ttl 64 id 3 protocol 6 offset (bytes) 0 flags [none] length: 52 88.77.66.2 > 88.77.66.1) ns3::TcpHeader (8000 > 49153 [ACK] Seq=1 Ack=2573 Win=32768 ns3::TcpOptionTS(3115;3088) ns3::TcpOptionEnd(EOL))
r 3.14973 /NodeList/1/DeviceList/0/$ns3::PointToPointNetDevice/MacRx ns3::PppHeader (Point-to-Point Protocol: IP (0x0021)) ns3::Ipv4Header (tos 0x0 DSCP Default ECN Not-ECT ttl 64 id 11 protocol 6 offset (bytes) 0 flags [none] length: 588 88.77.66.1 > 88.77.66.2) ns3::TcpHeader (49153 > 8000 [ACK] Seq=4501 Ack=1 Win=32768 ns3::TcpOptionTS(3122;2027) ns3::TcpOptionEnd(EOL)) Payload Fragment [0:536]
r 3.15245 /NodeList/1/DeviceList/0/$ns3::PointToPointNetDevice/MacRx ns3::PppHeader (Point-to-Point Protocol: IP (0x0021)) ns3::Ipv4Header (tos 0x0 DSCP Default ECN Not-ECT ttl 64 id 12 protocol 6 offset (bytes) 0 flags [none] length: 588 88.77.66.1 > 88.77.66.2) ns3::TcpHeader (49153 > 8000 [ACK] Seq=5037 Ack=1 Win=32768 ns3::TcpOptionTS(3125;3098) ns3::TcpOptionEnd(EOL)) Payload Fragment [536:1072]
+ 3.15245 /NodeList/1/DeviceList/0/$ns3::PointToPointNetDevice/TxQueue/Enqueue ns3::PppHeader (Point-to-Point Protocol: IP (0x0021)) ns3::Ipv4Header (tos 0x0 DSCP Default ECN Not-ECT ttl 64 id 6 protocol 6 offset (bytes) 0 flags [none] length: 52 88.77.66.2 > 88.77.66.1) ns3::TcpHeader (8000 > 49153 [ACK] Seq=1 Ack=5573 Win=32768 ns3::TcpOptionTS(3152;3122) ns3::TcpOptionEnd(EOL))
- 3.15245 /NodeList/1/DeviceList/0/$ns3::PointToPointNetDevice/TxQueue/Dequeue ns3::PppHeader (Point-to-Point Protocol: IP (0x0021)) ns3::Ipv4Header (tos 0x0 DSCP Default ECN Not-ECT ttl 64 id 6 protocol 6 offset (bytes) 0 flags [none] length: 52 88.77.66.2 > 88.77.66.1) ns3::TcpHeader (8000 > 49153 [ACK] Seq=1 Ack=5573 Win=32768 ns3::TcpOptionTS(3152;3122) ns3::TcpOptionEnd(EOL))
r 3.15256 /NodeList/1/DeviceList/0/$ns3::PointToPointNetDevice/MacRx ns3::PppHeader (Point-to-Point Protocol: IP (0x0021)) ns3::Ipv4Header (tos 0x0 DSCP Default ECN Not-ECT ttl 64 id 13 protocol 6 offset (bytes) 0 flags [none] length: 480 88.77.66.1 > 88.77.66.2) ns3::TcpHeader (49153 > 8000 [ACK] Seq=5573 Ack=1 Win=32768 ns3::TcpOptionTS(3125;3098) ns3::TcpOptionEnd(EOL)) Payload Fragment [1072:1500]
+ 3.15688 /NodeList/0/DeviceList/0/$ns3::PointToPointNetDevice/TxQueue/Enqueue ns3::PppHeader (Point-to-Point Protocol: IP (0x0021)) ns3::Ipv4Header (tos 0x0 DSCP Default ECN Not-ECT ttl 64 id 17 protocol 6 offset (bytes) 0 flags [none] length: 588 88.77.66.1 > 88.77.66.2) ns3::TcpHeader (49153 > 8000 [ACK] Seq=7501 Ack=1 Win=32768 ns3::TcpOptionTS(3156;3115) ns3::TcpOptionEnd(EOL)) Payload Fragment [0:536]
- 3.15688 /NodeList/0/DeviceList/0/$ns3::PointToPointNetDevice/TxQueue/Dequeue ns3::PppHeader (Point-to-Point Protocol: IP (0x0021)) ns3::Ipv4Header (tos 0x0 DSCP Default ECN Not-ECT ttl 64 id 17 protocol 6 offset (bytes) 0 flags [none] length: 588 88.77.66.1 > 88.77.66.2) ns3::TcpHeader (49153 > 8000 [ACK] Seq=7501 Ack=1 Win=32768 ns3::TcpOptionTS(3156;3115) ns3::TcpOptionEnd(EOL)) Payload Fragment [0:536]
+ 3.15688 /NodeList/0/DeviceList/0/$ns3::PointToPointNetDevice/TxQueue/Enqueue ns3::PppHeader (Point-to-Point Protocol: IP (0x0021)) ns3::Ipv4Header (tos 0x0 DSCP Default ECN Not-ECT ttl 64 id 18 protocol 6 offset (bytes) 0 flags [none] length: 588 88.77.66.1 > 88.77.66.2) ns3::TcpHeader (49153 > 8000 [ACK] Seq=8037 Ack=1 Win=32768 ns3::TcpOptionTS(3156;3115) ns3::TcpOptionEnd(EOL)) Payload Fragment [536:1072]
+ 3.15688 /NodeList/0/DeviceList/0/$ns3::PointToPointNetDevice/TxQueue/Enqueue ns3::PppHeader (Point-to-Point Protocol: IP (0x0021)) ns3::Ipv4Header (tos 0x0 DSCP Default ECN Not-ECT ttl 64 id 19 protocol 6 offset (bytes) 0 flags [none] length: 480 88.77.66.1 > 88.77.66.2) ns3::TcpHeader (49153 > 8000 [ACK] Seq=8573 Ack=1 Win=32768 ns3::TcpOptionTS(3156;3115) ns3::TcpOptionEnd(EOL)) Payload Fragment [1072:1500]
- 3.15702 /NodeList/0/DeviceList/0/$ns3::PointToPointNetDevice/TxQueue/Dequeue ns3::PppHeader (Point-to-Point Protocol: IP (0x0021)) ns3::Ipv4Header (tos 0x0 DSCP Default ECN Not-ECT ttl 64 id 18 protocol 6 offset (bytes) 0 flags [none] length: 588 88.77.66.1 > 88.77.66.2) ns3::TcpHeader (49153 > 8000 [ACK] Seq=8037 Ack=1 Win=32768 ns3::TcpOptionTS(3156;3115) ns3::TcpOptionEnd(EOL)) Payload Fragment [536:1072]
- 3.15715 /NodeList/0/DeviceList/0/$ns3::PointToPointNetDevice/TxQueue/Dequeue ns3::PppHeader (Point-to-Point Protocol: IP (0x0021)) ns3::Ipv4Header (tos 0x0 DSCP Default ECN Not-ECT ttl 64 id 19 protocol 6 offset (bytes) 0 flags [none] length: 480 88.77.66.1 > 88.77.66.2) ns3::TcpHeader (49153 > 8000 [ACK] Seq=8573 Ack=1 Win=32768 ns3::TcpOptionTS(3156;3115) ns3::TcpOptionEnd(EOL)) Payload Fragment [1072:1500]
r 3.1596 /NodeList/0/DeviceList/0/$ns3::PointToPointNetDevice/MacRx ns3::PppHeader (Point-to-Point Protocol: IP (0x0021)) ns3::Ipv4Header (tos 0x0 DSCP Default ECN Not-ECT ttl 64 id 4 protocol 6 offset (bytes) 0 flags [none] length: 52 88.77.66.2 > 88.77.66.1) ns3::TcpHeader (8000 > 49153 [ACK] Seq=1 Ack=3537 Win=32768 ns3::TcpOptionTS(3132;3088) ns3::TcpOptionEnd(EOL))
r 3.15985 /NodeList/0/DeviceList/0/$ns3::PointToPointNetDevice/MacRx ns3::PppHeader (Point-to-Point Protocol: IP (0x0021)) ns3::Ipv4Header (tos 0x0 DSCP Default ECN Not-ECT ttl 64 id 5 protocol 6 offset (bytes) 0 flags [none] length: 52 88.77.66.2 > 88.77.66.1) ns3::TcpHeader (8000 > 49153 [ACK] Seq=1 Ack=4501 Win=32768 ns3::TcpOptionTS(3132;3105) ns3::TcpOptionEnd(EOL))